/*--------------------------------*- C++ -*----------------------------------*\
  =========                 |
  \\      /  F ield         | OpenFOAM: The Open Source CFD Toolbox
   \\    /   O peration     | Website:  https://openfoam.org
    \\  /    A nd           | Version:  12
     \\/     M anipulation  |
\*---------------------------------------------------------------------------*/
FoamFile
{
    format      ascii;
    class       volScalarField;
    location    "0";
    object      thickness;
}
// * * * * * * * * * * * * * * * * * * * * * * * * * * * * * * * * * * * * * //

dimensions      [];

internalField   uniform 0;

boundaryField
{
    inlet
    {
        type            fixedValue;
        value           uniform 0;
    }
    outlet
    {
        type            fixedValue;
        value           uniform 0;
    }
    externalWalls
    {
        type            fixedValue;
        value           uniform 0;
    }
    frontAndBack
    {
        type            fixedValue;
        value           uniform 0;
    }
    avion
    {
        type            fixedValue;
        value           nonuniform List<scalar> 
119988
(
0
0
0
0
0
0
0
0
0
0
0
0
0
0
0
0
0
0
0
0
0
0
0
0
0
0
0
0
0
0
0
0
0
0
0
0
0
0
0
0
0
0
0
0
0
0
0
0
0
0
0
0
0
0
0
0
0
0
0
0
0
0
0
0
0
0
0
0
0
0
0
0
0
0
0
0
0
0
0
0
0
0
0
0
0
0
0
0
0
0
0
0
0
0
0
0
0
0
0
0
0
0
0
0
0
0
0
0
0
0
0
0
0
0
0
0
0
0
0
0
0
0
0
0
0
0
0
0
0
0
0
0
0
0
0
0
0
0
0
0
0
0
0
0
0
0
0
0
0
0
0
0
0
0
0
0
0
0
0
0
0
0
0
0
0
0
0
0
0
0
0
0
0
0
0
0
0
0
0
0
0
0
0
0
0
0
0
0
0
0
0
0
0
0
0
0
0
0
0
0
0
0
0
0
0
0
0
0
0
0
0
0
0
0
0
0
0
0
0
0
0
0
0
0
0
0
0
0
0
0
0
0
0
0
0
0
0
0
0
0
0
0
0
0
0
0
0
0
0
0
0
0
0
0
0
0
0
0
0
0
0
0
0
0
0
0
0
0
0
0
0
0
0
0
0
0
0
0
0
0
0
0
0
0
0
0
0
0
0
0
0
0
0
0
0
0
0
0
0
0
0
0
0
0
0
0
0
0
0
0
0
0
0
0
0
0
0
0
0
0
0
0
0
0
0
0
0
0
0
0
0
0
0
0
0
0
0
0
0
0
0
0
0
0
0
0
0
0
0
0
0
0
0
0
0
0
0
0
0
0
0
0
0
0
0
0
0
0
0
0
0
0
0
0
0
0
0
0
0
0
0
0
0
0
0
0
0
0
0
0
0
0
0
0
0
0
0
0
0
0
0
0
0
0
0
0
0
0
0
0
0
0
0
0
0
0
0
0
0
0
0
0
0
0
0
0
0
0
0
0
0
0
0
0
0
0
0
0
0
0
0
0
0
0
0
0
0
0
0
0
0
0
0
0
0
0
0
0
0
0
0
0
0
0
0
0
0
0
0
0
0
0
0
0
0
0
0
0
0
0
0
0
0
0
0
0
0
0
0
0
0
0
0
0
0
0
0
0
0
0
0
0
0
0
0
0
0
0
0
0
0
0
0
0
0
0
0
0
0
0
0
0
0
0
0
0
0
0
0
0
0
0
0
0
0
0
0
0
0
0
0
0
0
0
0
0
0
0
0
0
0
0
0
0
0
0
0
0
0
0
0
0
0
0
0
0
0
0
0
0
0
0
0
0
0
0
0
0
0
0
0
0
0
0
0
0
0
0
0
0
0
0
0
0
0
0
0
0
0
0
0
0
0
0
0
0
0
0
0
0
0
0
0
0
0
0
0
0
0
0
0
0
0
0
0
0
0
0
0
0
0
0
0
0
0
0
0
0
0
0
0
0
0
0
0
0
0
0
0
0
0
0
0
0
0
0
0
0
0
0
0
0
0
0
0
0
0
0
0
0
0
0
0
0
0
0
0
0
0
0
0
0
0
0
0
0
0
0
0
0
0
0
0
0
0
0
0
0
0
0
0
0
0
0
0
0
0
0
0
0
0
0
0
0
0
0
0
0
0
0
0
0
0
0
0
0
0
0
0
0
0
0
0
0
0
0
0
0
0
0
0
0
0
0
0
0
0
0
0
0
0
0
0
0
0
0
0
0
0
0
0
0
0
0
0
0
0
0
0
0
0
0
0
0
0
0
0
0
0
0
0
0
0
0
0
0
0
0
0
0
0
0
0
0
0
0
0
0
0
0
0
0
0
0
0
0
0
0
0
0
0
0
0
0
0
0
0
0
0
0
0
0
0
0
0
0
0
0
0
0
0
0
0
0
0
0
0
0
0
0
0
0
0
0
0
0
0
0
0
0
0
0
0
0
0
0
0
0
0
0
0
0
0
0
0
0
0
0
0
0
0
0
0
0
0
0
0
0
0
0
0
0
0
0
0
0
0
0
0
0
0
0
0
0
0
0
0
0
0
0
0
0
0
0
0
0
0
0
0
0
0
0
0
0
0
0
0
0
0
0
0
0
0
0
0
0
0
0
0
0
0
0
0
0
0
0
0
0
0
0
0
0
0
0
0
0
0
0
0
0
0
0
0
0
0
0
0
0
0
0
0
0
0
0
0
0
0
0
0
0
0
0
0
0
0
0
0
0
0
0
0
0
0
0
0
0
0
0
0
0
0
0
0
0
0
0
0
0
0
0
0
0
0
0
0
0
0
0
0
0
0
0
0
0
0
0
0
0
0
0
0
0
0
0
0
0
0
0
0
0
0
0
0
0
0
0
0
0
0
0
0
0
0
0
0
0
0
0
0
0
0
0
0
0
0
0
0
0
0
0
0
0
0
0
0
0
0
0
0
0
0
0
0
0
0
0
0
0
0
0
0
0
0
0
0
0
0
0
0
0
0
0
0
0
0
0
0
0
0
0
0
0
0
0
0
0
0
0
0
0
0
0
0
0
0
0
0
0
0
0
0
0
0
0
0
0
0
0
0
0
0
0
0
0
0
0
0
0
0
0
0
0
0
0
0
0
0
0
0
0
0
0
0
0
0
0
0
0
0
0
0
0
0
0
0
0
0
0
0
0
0
0
0
0
0
0
0
0
0
0
0
0
0
0
0
0
0
0
0
0
0
0
0
0
0
0
0
0
0
0
0
0
0
0
0
0
0
0
0
0
0
0
0
0
0
0
0
0
0
0
0
0
0
0
0
0
0
0
0
0
0
0
0
0
0
0
0
0
0
0
0
0
0
0
0
0
0
0
0
0
0
0
0
0
0
0
0
0
0
0
0
0
0
0
0
0
0
0
0
0
0
0
0
0
0
0
0
0
0
0
0
0
0
0
0
0
0
0
0
0
0
0
0
0
0
0
0
0
0
0
0
0
0
0
0
0
0
0
0
0
0
0
0
0
0
0
0
0
0
0
0
0
0
0
0
0
0
0
0
0
0
0
0
0
0
0
0
0
0
0
0
0
0
0
0
0
0
0
0
0
0
0
0
0
0
0
0
0
0
0
0
0
0
0
0
0
0
0
0
0
0
0
0
0
0
0
0
0
0
0
0
0
0
0
0
0
0
0
0
0
0
0
0
0
0
0
0
0
0
0
0
0
0
0
0
0
0
0
0
0
0
0
0
0
0
0
0
0
0
0
0
0
0
0
0
0
0
0
0
0
0
0
0
0
0
0
0
0
0
0
0
0
0
0
0
0
0
0
0
0
0
0
0
0
0
0
0
0
0
0
0
0
0
0
0
0
0
0
0
0
0
0
0
0
0
0
0
0
0
0
0
0
0
0
0
0.00113228
0.000489087
0.0012923
0.0010094
0.00046545
0.00199254
0.00111958
0.00103757
0.000936505
0.00132806
0.000594653
0.000814527
0.00115083
0.0014269
0.00185554
0.00630835
0.00115878
0.00100807
0.00195986
0.00717747
0.00717747
0.00103967
0.000461283
0.00717747
0.00717747
0.00717747
0.00717747
0.00150115
0.00717747
0.00717747
0.00717747
0.00717747
0.00157624
0.00714316
0.00716101
0.00717747
0.00717747
0.00717747
0.0067884
0.0067884
0.0070815
0.0070815
0.00714273
0.00714273
0.00717747
0.00717747
0.00717747
0.00717747
0.00184044
0.00695014
0.00182485
0.00198952
0.00717746
0.00717747
0.00717747
0.00716431
0.00717745
0.00172538
0.00717747
0.000467063
0.000428843
0.00717747
0.00221428
0.00717747
0.00178942
0.00717747
0.00717729
0.00717734
0.00717663
0.0071774
0.00712723
0.0071765
0.0069769
0.00717739
0.00713332
0.00104064
0.00447282
0.00456087
0.00110668
0.00104949
0.0071564
0.00717737
0.00717747
0.00337896
0.00717747
0.00317446
0.00717666
0.0071774
0.00713066
0.00717657
0.00698496
0.00717739
0.00713514
0.00710608
0.00717724
0.00717747
0.00717733
0.00717733
0.0043831
0.00678823
0.0067882
0.0067884
0.0067884
0.00708144
0.0070815
0.00700796
0.00700793
0.00700824
0.00700825
0.0071427
0.00714274
0.00717705
0.00133345
0.00710954
0.0071188
0.00717683
0.00115805
0.000825391
0.00717254
0.00717663
0.00717373
0.00146155
0.00208992
0.00177929
0.00211497
0.00205173
0.00171437
0.00170875
0.00171421
0.00171374
0.00145624
0.00169654
0.00717747
0.00683648
0.0071773
0.00673667
0.00717095
0.00673685
0.00717094
0.0068366
0.0071773
0.00717747
0.00186846
0.00696446
0.00211493
0.00211482
0.007177
0.00643864
0.00712552
0.00316774
0.00500848
0.00176943
0.00717599
0.00717747
0.00717379
0.00717747
0.00717747
0.00717747
0.00717747
0.00717747
0.00717747
0.00717747
0.00717747
0.00211417
0.00197863
0.00717747
0.00717747
0.0021145
0.00211529
0.00717747
0.00717747
0.000914953
0.00717747
0.00116848
0.00171694
0.0017158
0.00171709
0.0017187
0.00171638
0.00172097
0.00171629
0.00171631
0.00145573
0.00680217
0.00717747
0.00717747
0.00717747
0.00717747
0.00717747
0.00717747
0.00717747
0.00211489
0.00211486
0.00717747
0.00717747
0.00717747
0.00717747
0.00211489
0.00211496
0.00717747
0.00717747
0.00717747
0.00717274
0.00678837
0.00673909
0.0067884
0.0067876
0.00708145
0.00704386
0.0070815
0.00708104
0.00700813
0.00691602
0.00700823
0.00700692
0.00714271
0.0070931
0.00714274
0.00714203
0.00717746
0.00717747
0.00717747
0.00717744
0.00137766
0.00717729
0.00717746
0.00638255
0.0069945
0.00708858
0.00712559
0.00652853
0.00432968
0.00237882
0.00115397
0.00537193
0.00287672
0.000599149
0.00670149
0.00717742
0.00717747
0.00717747
0.00717747
0.00717747
0.00717747
0.00717747
0.00717747
0.00717747
0.00717747
0.00717747
0.00717747
0.00717747
0.000289268
0.00717692
0.00717741
0.00717731
0.00717747
0.00717747
0.0071771
0.00121771
0.00717617
0.00717736
0.00211515
0.00201206
0.00167218
0.00195704
0.00717746
0.00717747
0.00717737
0.00717746
0.00717747
0.00717747
0.00707915
0.0071768
0.00717747
0.00717736
0.0070792
0.0071768
0.00717747
0.00717736
0.00717746
0.00717747
0.00717746
0.00717746
0.00717736
0.00717745
0.00111346
0.00167058
0.0055909
0.00171388
0.00171375
0.00171813
0.00171173
0.0037023
0.0017164
0.00163794
0.0043249
0.00712664
0.00716921
0.00717747
0.00717747
0.00717747
0.00717747
0.00717747
0.00717747
0.00717747
0.00717747
0.00717747
0.00717747
0.00717747
0.0071754
0.00717747
0.00717747
0.00717747
0.00717747
0.00716939
0.00717638
0.00211484
0.00211482
0.00211497
0.00210992
0.00717741
0.00717747
0.0057666
0.00584212
0.00717747
0.00717747
0.00717747
0.00717747
0.00717747
0.00112654
0.00717713
0.0071773
0.00717745
0.00717747
0.00657838
0.00700325
0.00717745
0.00717725
0.00684771
0.00696925
0.00717746
0.00714301
0.00716983
0.00716352
0.00716195
0.00717031
0.00716343
0.00716182
0.00717742
0.00717728
0.00717747
0.00717747
0.00717747
0.00717747
0.00696544
0.00717747
0.00717747
0.00713088
0.00710401
0.00690509
0.00685576
0.00700294
0.00717747
0.00717747
0.00714051
0.00710633
0.00694867
0.00685747
0.00717747
0.00717747
0.00717747
0.00717747
0.00717747
0.00717747
0.00717747
0.00717747
0.00717747
0.00717747
0.00717621
0.00717721
0.00717736
0.00717747
0.00717747
0.00717747
0.00717747
0.00717747
0.00717747
0.00717747
0.00717747
0.00717747
0.00717747
0.00717747
0.0071756
0.00583973
0.00158666
0.00717737
0.00717668
0.0013444
0.00717091
0.00717723
0.00717649
0.00716674
0.00716923
0.00711246
0.00717747
0.00717747
0.00717747
0.00717747
0.00717747
0.00717747
0.00717747
0.00717747
0.00180969
0.00687432
0.00211515
0.00211525
0.00717747
0.00717747
0.00717747
0.00175356
0.0013269
0.00717743
0.00717745
0.00661544
0.00717747
0.00717747
0.00716148
0.0071473
0.00717747
0.00717289
0.00717311
0.00116527
0.00717708
0.00717736
0.000517947
0.00717681
0.00717747
0.00717747
0.00717319
0.000893552
0.00717689
0.00717736
0.000447486
0.00717676
0.00406106
0.00358415
0.00123599
0.00141274
0.00356393
0.00171393
0.00171555
0.00171826
0.00171879
0.00168745
0.00171643
0.00171635
0.00717731
0.00717656
0.0008033
0.00713167
0.00687936
0.00717025
0.00686682
0.00256379
0.00567236
0.00717747
0.00717747
0.00717747
0.000544114
0.00717747
0.00717747
0.00717747
0.00717747
0.00717747
0.00717747
0.00717747
0.00717747
0.00717747
0.00717747
0.00717747
0.00717747
0.00717747
0.00717747
0.00717747
0.00717747
0.00717747
0.00717747
0.00717747
0.00717747
0.00717747
0.000531665
0.00717747
0.00717747
0.00717747
0.00717747
0.00717747
0.00717747
0.00717745
0.00717746
0.0066992
0.00717747
0.00717747
0.00695927
0.00716834
0.00716057
0.00717747
0.00717511
0.00687662
0.00717747
0.00717747
0.00717747
0.00717747
0.00717747
0.00717747
0.00211484
0.00211486
0.00717747
0.00717747
0.00717747
0.00717747
0.00211496
0.00211496
0.00717747
0.00717747
0.00389419
0.00717747
0.00717747
0.00717747
0.00717747
0.00717747
0.00717747
0.00717747
0.00717747
0.00717747
0.00717747
0.00717547
0.00580701
0.00609193
0.00164226
0.00717737
0.00717662
0.00135896
0.00717021
0.00717722
0.00717642
0.00716812
0.00627346
0.00708925
0.00716848
0.00712374
0.00438307
0.00678836
0.0067884
0.00700813
0.00656033
0.00642783
0.00717747
0.00717747
0.000494716
0.00512558
0.0050732
0.0041659
0.00546549
0.00496694
0.00446739
0.001894
0.0030593
0.00717747
0.00717747
0.00717747
0.00717399
0.00210847
0.00717747
0.00717747
0.0051874
0.00714206
0.00717747
0.00717747
0.00717747
0.00717747
0.00717747
0.00717747
0.00127488
0.00328388
0.00111524
0.00151707
0.00111466
0.00151841
0.00127318
0.00325818
0.00717747
0.00717747
0.00483034
0.0071203
0.00717747
0.00670546
0.00717747
0.00717398
0.00708463
0.00534748
0.00715832
0.00717745
0.00717747
0.00147449
0.000454175
0.00684568
0.00643358
0.00717747
0.00714488
0.00466999
0.00717112
0.00700385
0.00717747
0.00717747
0.00717747
0.00713147
0.00717747
0.00714013
0.00717747
0.00717747
0.00617739
0.00593386
0.00717747
0.00717747
0.00717747
0.00717747
0.00686203
0.00694409
0.00589654
0.00698958
0.00716392
0.00144918
0.00717747
0.00717747
0.00717747
0.00717747
0.00717747
0.00717747
0.00717746
0.00717747
0.00321061
0.0038069
0.00608992
0.00717747
0.00717747
0.00717747
0.00717747
0.00705179
0.00717747
0.00717747
0.00717747
0.00717747
0.00535941
0.00591269
0.00601827
0.0071448
0.00558669
0.00716834
0.00603695
0.00717747
0.00717747
0.00717747
0.00717747
0.00717747
0.00717747
0.00717747
0.00717747
0.00717747
0.00717747
0.00717747
0.000790706
0.00717747
0.00717747
0.00717747
0.00717747
0.00227214
0.00717747
0.00717747
0.00717747
0.00717747
0.00717747
0.00619916
0.0069342
0.00698248
0.00716017
0.00588356
0.00659665
0.00689693
0.00164214
0.000991018
0.00591291
0.00177994
0.00627899
0.00717747
0.00717747
0.00717747
0.00578778
0.00640364
0.00183415
0.00619868
0.00675424
0.00116042
0.00706289
0.00717263
0.0066014
0.00717747
0.00717747
0.00717747
0.00717747
0.00717747
0.00717747
0.00717747
0.00717747
0.00717747
0.00717747
0.00688885
0.00717513
0.00717747
0.00717747
0.00717747
0.00717747
0.00717747
0.00717747
0.00717747
0.00717747
0.00550031
0.00717747
0.00717747
0.00716434
0.00717746
0.00717747
0.00110278
0.000994665
0.00717747
0.00717747
0.00717747
0.00717328
0.00717747
0.00717747
0.00717725
0.00708682
0.00142894
0.00717478
0.00685075
0.00717747
0.00717747
0.00717747
0.00717747
0.00715364
0.00696695
0.00638053
0.0053737
0.00714273
0.00692956
0.00638399
0.00545579
0.00717747
0.00717747
0.00717747
0.00717747
0.00139297
0.00717747
0.00717747
0.00717747
0.00717747
0.00717747
0.00717747
0.00717747
0.00717747
0.0071615
0.00717745
0.00688792
0.00717511
0.00717747
0.00717747
0.00717747
0.00717747
0.00386668
0.00407508
0.00717747
0.00717747
0.00717747
0.00717747
0.000982413
0.00717147
0.00716788
0.0071679
0.00717147
0.00717147
0.0071679
0.0071679
0.00717147
0.00252707
0.00164144
0.00717146
0.00716781
0.00716781
0.00717146
0.00717744
0.00715696
0.00717746
0.00717747
0.00717747
0.0071773
0.00717747
0.0071714
0.00716778
0.0071677
0.00717147
0.00646806
0.00172316
0.000924181
0.00717747
0.00717747
0.00609746
0.00652034
0.00717747
0.00717747
0.00717747
0.00717747
0.00717747
0.00717747
0.00717747
0.00717747
0.00717747
0.00717747
0.00114212
0.00418266
0.00182245
0.00116302
0.00420354
0.00653625
0.00717747
0.00717747
0.00717747
0.00717747
0.0016875
0.00717747
0.00717747
0.00717747
0.00229521
0.00557013
0.0055799
0.00713299
0.00582641
0.00717747
0.00717747
0.00717747
0.00717747
0.00717747
0.00717747
0.00717747
0.00717747
0.00717747
0.00717747
0.00717747
0.00717747
0.00717747
0.00717615
0.00717747
0.00717747
0.00717747
0.00717747
0.00717747
0.00717747
0.00717747
0.00717747
0.00717747
0.00717615
0.00717747
0.00717747
0.00717747
0.00717747
0.00717747
0.00717747
0.00717747
0.00717747
0.00694538
0.00717745
0.00717745
0.00717747
0.00717746
0.00717747
0.00717146
0.0071679
0.00716773
0.00717147
0.00717747
0.00717747
0.00717747
0.00717747
0.00717747
0.00717747
0.00717747
0.00717747
0.00698311
0.00305426
0.00717747
0.00717742
0.00717147
0.0071679
0.0071679
0.00717147
0.00440429
0.0016443
0.00717146
0.00716782
0.00716781
0.00717146
0.00717747
0.00717747
0.00717747
0.00717747
0.00717687
0.00717747
0.000925212
0.00445196
0.00591713
0.00590057
0.00717452
0.00684094
0.00426148
0.00703929
0.00682848
0.00705303
0.00717747
0.00717747
0.00717747
0.00717747
0.00717692
0.00717747
0.00717747
0.00717747
0.00717747
0.00717747
0.00717747
0.00717747
0.00717747
0.00717747
0.00717747
0.00717747
0.00717747
0.00717747
0.00717747
0.00717747
0.00717747
0.00717747
0.00717747
0.00717747
0.00717747
0.00717747
0.00717747
0.00717747
0.0012689
0.00165683
0.00717747
0.00717744
0.00564024
0.00448963
0.00717483
0.00661779
0.00717231
0.00686352
0.00717747
0.00717747
0.00693777
0.00656535
0.00717747
0.00717747
0.00717747
0.000599621
0.00449046
0.00564625
0.00197849
0.00594726
0.000609028
0.00612255
0.00717747
0.00717747
0.00717747
0.00717747
0.00717747
0.00162108
0.00717747
0.00717747
0.00717747
0.0070673
0.00717747
0.00717743
0.00717747
0.00717747
0.00717747
0.00717747
0.00717747
0.00717747
0.00717745
0.00717747
0.00717325
0.00717747
0.00717747
0.00717747
0.00717747
0.00717747
0.00716528
0.00716667
0.00717701
0.00703169
0.00717746
0.00717747
0.00717747
0.00717747
0.00717747
0.00717747
0.00717747
0.00717744
0.00717701
0.00716743
0.00705296
0.00717747
0.00717747
0.00717747
0.00717747
0.00717747
0.00717747
0.00717747
0.00717747
0.00717747
0.00717743
0.00717747
0.00717747
0.00717747
0.00717747
0.00717747
0.00717747
0.00717747
0.00717747
0.00717747
0.00717747
0.00717747
0.00717747
0.00717747
0.00717747
0.00717747
0.00717747
0.00717747
0.00717747
0.00717747
0.00717747
0.00717747
0.00717747
0.00717747
0.00717747
0.00717747
0.00717747
0.00717747
0.00717747
0.00717747
0.00717747
0.00524606
0.00481955
0.00717747
0.00717747
0.00717747
0.00717747
0.00717747
0.00717747
0.00717747
0.00717747
0.00717747
0.00717747
0.00717747
0.00717747
0.00717747
0.00717747
0.00717747
0.00717747
0.00717747
0.00717747
0.00717747
0.00717747
0.00301089
0.00407468
0.00717747
0.00717747
0.00717747
0.00717747
0.00717747
0.00717747
0.0071773
0.00717747
0.00717747
0.00717747
0.00717747
0.00717747
0.0071051
0.00717747
0.00717747
0.00717747
0.00717746
0.00717747
0.00717747
0.00717747
0.00717747
0.00717747
0.00717747
0.00717747
0.00717747
0.00717747
0.00717747
0.00717747
0.00717747
0.00717747
0.00717747
0.00717747
0.00717747
0.00717747
0.00717747
0.00717747
0.00717747
0.00717747
0.00717747
0.00717747
0.00717747
0.00717747
0.00717747
0.00717747
0.00717747
0.00717747
0.00717747
0.00717747
0.00717747
0.00717747
0.00717747
0.00717747
0.00717747
0.00455378
0.00289823
0.00717747
0.00717747
0.00717747
0.00717747
0.00717747
0.00717747
0.00717747
0.00717747
0.00717725
0.00717747
0.00717747
0.00717746
0.00316529
0.0032468
0.00717747
0.00717747
0.00717747
0.00717747
0.00717747
0.00717747
0.00717747
0.00717747
0.00717747
0.00717747
0.00717747
0.00717747
0.00717747
0.00717747
0.00717747
0.00717747
0.00717747
0.00717747
0.00717747
0.00717747
0.00717747
0.00717747
0.00717747
0.00717747
0.00717747
0.00717747
0.00717747
0.00717747
0.00717747
0.00717747
0.00717747
0.00717747
0.00717747
0.00717747
0.00717747
0.00717747
0.00717747
0.00717747
0.00717747
0.00717747
0.00717747
0.00717747
0.00717747
0.00717747
0.00717747
0.00717747
0.00717747
0.00717747
0.00717747
0.00717747
0.00717747
0.00717747
0.00717747
0.00717747
0.00717747
0.00717747
0.00717747
0.00717747
0.00717747
0.00717747
0.00717747
0.00717747
0.00717747
0.00717747
0.00717747
0.00717747
0.00717747
0.00717747
0.00717747
0.00717747
0.00717747
0.00717747
0.00717747
0.00717747
0.00717747
0.00717747
0.00717747
0.00717747
0.00717747
0.00717747
0.00717747
0.00717747
0.00717747
0.00717747
0.00693574
0.00483267
0.00696686
0.00717747
0.00695954
0.00688724
0.00717747
0.00715672
0.00700279
0.00717103
0.00654356
0.00717681
0.00717747
0.00717747
0.00717747
0.00717719
0.00717747
0.00717747
0.00717747
0.00717668
0.00717747
0.00717747
0.00717747
0.00716772
0.00717712
0.00717747
0.00717747
0.000897194
0.00716119
0.00717702
0.00717747
0.00717747
0.00103803
0.00717747
0.00707128
0.00697099
0.00659925
0.00688709
0.00717747
0.00717747
0.00717745
0.00714462
0.00717742
0.00715968
0.00111822
0.00173084
0.00618955
0.00637076
0.00717481
0.00661523
0.00717228
0.00686165
0.00709875
0.00558478
0.0070656
0.00708061
0.0055242
0.0070218
0.0070904
0.00348608
0.000660036
0.00581111
0.0051613
0.000679741
0.00582797
0.00515724
0.00678861
0.00690435
0.00717747
0.00717747
0.00717747
0.00717747
0.00717747
0.00717747
0.00717747
0.00717747
0.00717747
0.00717747
0.00717747
0.00717747
0.00717747
0.00717747
0.00368347
0.00293269
0.00717747
0.00717747
0.00717747
0.00717747
0.00717747
0.0071771
0.00717672
0.00708357
0.00717711
0.00706007
0.00716426
0.00717694
0.00710433
0.00716682
0.00614233
0.00630912
0.00710449
0.00263577
0.00144982
0.00717147
0.00716791
0.00717147
0.00716791
0.00717147
0.0071679
0.00717147
0.0071679
0.00717147
0.00716791
0.00717147
0.00716791
0.00717147
0.00716781
0.00717146
0.00716784
0.00717747
0.00717747
0.00717747
0.00717747
0.00717747
0.00717747
0.00717747
0.00717747
0.00717747
0.00717747
0.00717747
0.00717747
0.00717745
0.00717715
0.00696211
0.00706664
0.00443344
0.00443201
0.000512743
0.00163749
0.00717747
0.00717747
0.00717147
0.00716782
0.0071679
0.00717147
0.00717747
0.00717747
0.00717747
0.00697419
0.00717736
0.00717611
0.00711772
0.00717657
0.00717579
0.00703164
0.00717694
0.00717718
0.0069482
0.00717276
0.00717474
0.00646228
0.00716712
0.00717525
0.00716829
0.00715236
0.00717747
0.00717747
0.00604274
0.00635566
0.00717747
0.00717747
0.00522067
0.00522072
0.00714178
0.00714177
0.00164438
0.00250693
0.00154569
0.00714101
0.0071414
0.00491118
0.00250716
0.00250716
0.00522072
0.00714147
0.00714177
0.00119405
0.00152858
0.00105367
0.00147142
0.00717747
0.00717747
0.00717747
0.00717747
0.00717747
0.00717747
0.00717747
0.00717747
0.00717747
0.00717747
0.00717747
0.00717747
0.00717747
0.00717747
0.00717747
0.00717747
0.00717747
0.00717747
0.00717747
0.00717747
0.00717747
0.00717747
0.00717747
0.00717747
0.00717747
0.00717747
0.00717747
0.00717747
0.00717747
0.00717747
0.00717747
0.00717747
0.00717747
0.00717747
0.00717747
0.00717747
0.00717747
0.00717747
0.00717747
0.00717747
0.00717747
0.00717747
0.00717747
0.00717747
0.00717747
0.00717747
0.00717747
0.00717747
0.00717747
0.00717747
0.00717747
0.00717747
0.00717747
0.00717747
0.00717747
0.00717747
0.00717747
0.00717747
0.00717747
0.00717747
0.00717747
0.00717747
0.00717747
0.00717747
0.00717747
0.00717747
0.00717747
0.00717747
0.00717747
0.00717747
0.00717747
0.00717747
0.00717747
0.00717747
0.00717747
0.00717747
0.00717747
0.00717747
0.00717747
0.00717747
0.00717747
0.00717747
0.00717747
0.00717747
0.00717747
0.00717747
0.00717747
0.00717747
0.00717747
0.00717747
0.00717747
0.00717747
0.00717747
0.00717747
0.00717747
0.00717747
0.00717747
0.00717747
0.00717747
0.00717747
0.00717747
0.00717747
0.00717747
0.00717747
0.00717747
0.00717747
0.00717747
0.00717747
0.00717747
0.00717747
0.00717747
0.00717747
0.00717747
0.00717747
0.00717747
0.00717747
0.00717747
0.00717747
0.00717747
0.00717747
0.00717747
0.00717747
0.00717747
0.00717747
0.00717747
0.00717747
0.00717747
0.00717747
0.00717747
0.00717747
0.00717747
0.00717747
0.00717747
0.00717747
0.00717747
0.00717747
0.00717747
0.00717747
0.00717747
0.00717747
0.00717747
0.00717747
0.00717747
0.00717747
0.00717747
0.00717747
0.00717747
0.00717747
0.00717747
0.00717747
0.00717747
0.00717747
0.00717747
0.00717747
0.00717747
0.00717747
0.00717747
0.00717747
0.00717747
0.00717747
0.00717747
0.00717747
0.00717747
0.00717747
0.00149257
0.000445289
0.00145549
0.000446294
0.00118917
0.0048705
0.00457951
0.00357898
0.00717747
0.00717747
0.00717747
0.00717747
0.00717747
0.00717747
0.00717747
0.00717747
0.00717747
0.00717747
0.00717747
0.00717747
0.00717747
0.00717747
0.00717747
0.00717747
0.00717251
0.00714397
0.00685248
0.00717747
0.00717747
0.00717747
0.00717747
0.00716732
0.00717685
0.00717746
0.00701518
0.00717743
0.0071736
0.00716384
0.00717747
0.00717747
0.00717747
0.00717747
0.00717747
0.00717747
0.00717747
0.00717747
0.00717747
0.00717747
0.00717747
0.00717747
0.00717747
0.00717747
0.00717747
0.00717747
0.00717747
0.00717747
0.00717747
0.00717747
0.00192855
0.00614623
0.00717746
0.00717735
0.00717747
0.00717747
0.00717747
0.00717747
0.00686116
0.0065312
0.00630287
0.00717747
0.00717742
0.00717747
0.00717747
0.00713595
0.00717746
0.00717747
0.00717747
0.00717747
0.00717747
0.00717747
0.00717747
0.00717747
0.00717747
0.00717747
0.00717747
0.00717747
0.00717747
0.00717687
0.00717703
0.00701696
0.00717747
0.00717747
0.00717747
0.00717747
0.00717745
0.00717747
0.00717747
0.00717747
0.00717747
0.00717747
0.00717747
0.00717747
0.00717747
0.00717747
0.00717747
0.00717747
0.00717747
0.00717747
0.00717747
0.00717747
0.00717747
0.00717386
0.00717747
0.00717747
0.00717747
0.00717747
0.00717747
0.00190742
0.00657935
0.00717747
0.00717747
0.00717747
0.00289791
0.00519356
0.00367262
0.00564721
0.00361567
0.00520958
0.00479037
0.00674917
0.00422762
0.00317113
0.00705525
0.00411506
0.00188352
0.00717747
0.00717747
0.00717747
0.00717747
0.00717747
0.00717747
0.00717747
0.00717747
0.00717747
0.00717747
0.00717747
0.00717747
0.00717747
0.00717747
0.00717747
0.00717747
0.00717747
0.00717747
0.00717747
0.00717747
0.00717747
0.00500896
0.00560992
0.00415478
0.00195426
0.00705383
0.00407703
0.00139575
0.00360355
0.0061791
0.00717747
0.00717747
0.00698229
0.00717736
0.00717632
0.00711995
0.00717641
0.0071759
0.0070694
0.00717718
0.00717731
0.00696251
0.00717454
0.00717576
0.00661329
0.00716815
0.00717635
0.00716865
0.00715094
0.00717747
0.00717747
0.00717747
0.00717747
0.000996367
0.000818953
0.00717742
0.00717687
0.00703357
0.00710938
0.0071772
0.00717721
0.00711839
0.00717664
0.00697693
0.00717735
0.00717684
0.00717256
0.00615207
0.00575334
0.00667784
0.00689812
0.000499403
0.0015641
0.00717147
0.0071679
0.00717147
0.0071679
0.00717747
0.00717747
0.00717747
0.00717747
0.00677651
0.00717261
0.0071774
0.00717746
0.00717741
0.00717747
0.00717747
0.00717747
0.00717747
0.00316863
0.00313646
0.00717147
0.00716791
0.00716791
0.00717147
0.00717147
0.0071679
0.0071679
0.00717147
0.00717147
0.00716791
0.00716788
0.00717147
0.00717147
0.00716782
0.00716781
0.00717147
0.00717736
0.00717747
0.00717747
0.00717658
0.00717653
0.00709988
0.00717671
0.00695989
0.00715917
0.00717677
0.00710158
0.00716544
0.00610788
0.0071699
0.0071699
0.00161217
0.00361199
0.00159759
0.00713536
0.00449184
0.0059201
0.00717747
0.00717747
0.00361262
0.00361262
0.0071699
0.0036067
0.00592038
0.00592038
0.00717715
0.00717747
0.00161592
0.00717747
0.00616109
0.00673354
0.00709774
0.00129123
0.00631874
0.00668686
0.00689829
0.00717715
0.00705875
0.00717747
0.00717747
0.0048651
0.00577017
0.00633974
0.00717511
0.00672605
0.00663298
0.00717686
0.00704103
0.00117331
0.000422555
0.00339044
0.00423911
0.00600327
0.00234189
0.00717662
0.00683518
0.001267
0.00447449
0.00450811
0.00461514
0.00577434
0.00533854
0.00578505
0.000494553
0.00551371
0.00678286
0.000462828
0.00470179
0.00455086
0.00211504
0.00211439
0.00717747
0.00717747
0.00623936
0.00715563
0.00717747
0.00171529
0.00171586
0.00171389
0.00171381
0.00105432
0.00717747
0.00717747
0.00717747
0.00717178
0.00038603
0.00717747
0.00717747
0.00717632
0.00717747
0.00717747
0.00717747
0.00717747
0.00717747
0.00717747
0.00655882
0.00174657
0.00655859
0.00174703
0.00717747
0.00717747
0.00717746
0.00716722
0.00211484
0.00211482
0.00618205
0.00127248
0.00717747
0.0071766
0.00698264
0.00717156
0.00717747
0.00717739
0.00717747
0.00717653
0.00686673
0.00688901
0.00642765
0.00623787
0.0071556
0.00717747
0.00717747
0.00717747
0.00717747
0.00482629
0.00708383
0.00710513
0.00717682
0.00699712
0.00717747
0.00717747
0.00717747
0.00717747
0.00717747
0.00717747
0.00717747
0.00717747
0.00717747
0.00717747
0.00717747
0.00717747
0.00717747
0.00717747
0.00717747
0.00717747
0.00717747
0.00717747
0.00717747
0.00717747
0.00717744
0.00716907
0.00717746
0.00715378
0.00706243
0.00706177
0.00702705
0.00695752
0.00717747
0.00717747
0.00717747
0.00717747
0.00717747
0.00717747
0.00717747
0.00717747
0.000443372
0.00409533
0.00106655
0.000441809
0.00409551
0.00024479
0.00178261
0.00667497
0.00662388
0.000982275
0.00717747
0.00717747
0.00717747
0.00717747
0.00717747
0.00717747
0.00717747
0.00717747
0.00717745
0.00716786
0.00717746
0.00715577
0.00717747
0.00717747
0.00717747
0.00717747
0.00689307
0.00717605
0.00684063
0.00710439
0.00717587
0.00650343
0.0070128
0.00213147
0.00267683
0.00481916
0.000386394
0.00357034
0.0011258
0.00514501
0.00717747
0.00717747
0.00717747
0.00717747
0.00717747
0.00717747
0.00717747
0.00717747
0.00211275
0.00211035
0.00211519
0.00211529
0.00717747
0.00717747
0.00717747
0.00716341
0.00717741
0.00717747
0.00717747
0.00717734
0.00712525
0.00204992
0.00677143
0.006789
0.00186111
0.00107835
0.00677633
0.00207467
0.00495925
0.00638909
0.00618117
0.00650659
0.00632573
0.00717747
0.00717747
0.00717747
0.00717747
0.00717747
0.00717747
0.00717747
0.00717747
0.00171651
0.00171636
0.00171766
0.00171792
0.00171674
0.00171803
0.0017162
0.00171622
0.00498613
0.000621339
0.00236523
0.00717747
0.00717747
0.00717747
0.00717747
0.00236102
0.00503561
0.00717747
0.00717747
0.0071625
0.00717741
0.0063021
0.00535959
0.00717747
0.00717747
0.00717747
0.00717747
0.00717747
0.00717747
0.00717747
0.00717747
0.00717747
0.0009215
0.00100451
0.00208756
0.00444267
0.00232282
0.00443091
0.00246975
0.00443561
0.00717747
0.00717747
0.00717747
0.00717747
0.00717747
0.00717747
0.00717747
0.00717747
0.00717747
0.00717747
0.00717747
0.00717747
0.00716607
0.00283207
0.00316565
0.00338798
0.00666798
0.00350182
0.00666414
0.00717747
0.00717747
0.00717747
0.00717747
0.00717747
0.00717747
0.00717747
0.00717747
0.00211488
0.00211487
0.00211492
0.00211493
0.00717701
0.00484191
0.00691427
0.00717747
0.00689452
0.00717469
0.00649061
0.0068738
0.00714891
0.00693147
0.00717747
0.00717747
0.00717747
0.00717747
0.00717747
0.00717747
0.00717747
0.00717747
0.00717747
0.00173021
0.00717747
0.00717747
0.00644375
0.00187597
0.00185434
0.00691572
0.00711233
0.00338654
0.00701126
0.00551299
0.0071635
0.00717741
0.00714245
0.00717745
0.00717747
0.00717747
0.00717747
0.00717747
0.00717747
0.00717747
0.00717747
0.00717747
0.00704279
0.00547695
0.00708963
0.00649342
0.00151717
0.00312804
0.00717747
0.00717747
0.00717747
0.00717747
0.00717747
0.00717743
0.00717747
0.00717747
0.00717747
0.00717747
0.00049011
0.00673983
0.00660686
0.00717741
0.00717747
0.00717747
0.00717747
0.00717747
0.00717747
0.00708168
0.00717699
0.00701668
0.00717747
0.00717747
0.00717747
0.00717747
0.00717747
0.00717747
0.00717747
0.00717722
0.00717747
0.00717747
0.00717747
0.00717747
0.00717747
0.00717747
0.00717747
0.00717747
0.00717747
0.00717747
0.00717747
0.00717747
0.00717747
0.00717747
0.00717747
0.00717747
0.00717747
0.00717747
0.00717747
0.00717747
0.00717747
0.00717747
0.00717747
0.00717747
0.00588381
0.00656224
0.0070235
0.00717648
0.00705908
0.00717729
0.00712642
0.00232332
0.0071774
0.00717747
0.00717304
0.00711597
0.00647127
0.00717153
0.00715295
0.00661934
0.00668029
0.00717655
0.00717747
0.00717745
0.00717747
0.00717328
0.00717747
0.000500262
0.000537304
0.000471502
0.000928852
0.00691907
0.00717747
0.00717747
0.00717742
0.00717747
0.00717747
0.00717747
0.00717746
0.00642324
0.00715333
0.00717746
0.00716585
0.00567994
0.00710917
0.00717747
0.00717747
0.00717747
0.00702096
0.00717682
0.00702194
0.00714937
0.00712549
0.00717729
0.0071746
0.00677249
0.00717747
0.00717747
0.00717747
0.00717747
0.00717747
0.00717747
0.00717747
0.00717747
0.00717747
0.00717747
0.00717747
0.00717052
0.00717746
0.0070828
0.00627847
0.00715103
0.00696428
0.00717741
0.00717711
0.00704112
0.000808367
0.00663944
0.00717747
0.00166544
0.00717747
0.00717747
0.00717747
0.00717742
0.00717747
0.00717747
0.00717747
0.00704164
0.00690281
0.00709597
0.00694205
0.00717747
0.00717747
0.00717747
0.00717747
0.00717747
0.00717747
0.00717747
0.00717747
0.00717747
0.00717747
0.00717747
0.00717747
0.00717747
0.00717747
0.00717747
0.00717747
0.00717747