/*--------------------------------*- C++ -*----------------------------------*\
  =========                 |
  \\      /  F ield         | OpenFOAM: The Open Source CFD Toolbox
   \\    /   O peration     | Website:  https://openfoam.org
    \\  /    A nd           | Version:  12
     \\/     M anipulation  |
\*---------------------------------------------------------------------------*/
FoamFile
{
    format      ascii;
    class       volScalarField;
    location    "0";
    object      thicknessFraction;
}
// * * * * * * * * * * * * * * * * * * * * * * * * * * * * * * * * * * * * * //

dimensions      [];

internalField   uniform 0;

boundaryField
{
    inlet
    {
        type            fixedValue;
        value           uniform 0;
    }
    outlet
    {
        type            fixedValue;
        value           uniform 0;
    }
    externalWalls
    {
        type            fixedValue;
        value           uniform 0;
    }
    frontAndBack
    {
        type            fixedValue;
        value           uniform 0;
    }
    avion
    {
        type            fixedValue;
        value           nonuniform List<scalar> 
119988
(
0
0
0
0
0
0
0
0
0
0
0
0
0
0
0
0
0
0
0
0
0
0
0
0
0
0
0
0
0
0
0
0
0
0
0
0
0
0
0
0
0
0
0
0
0
0
0
0
0
0
0
0
0
0
0
0
0
0
0
0
0
0
0
0
0
0
0
0
0
0
0
0
0
0
0
0
0
0
0
0
0
0
0
0
0
0
0
0
0
0
0
0
0
0
0
0
0
0
0
0
0
0
0
0
0
0
0
0
0
0
0
0
0
0
0
0
0
0
0
0
0
0
0
0
0
0
0
0
0
0
0
0
0
0
0
0
0
0
0
0
0
0
0
0
0
0
0
0
0
0
0
0
0
0
0
0
0
0
0
0
0
0
0
0
0
0
0
0
0
0
0
0
0
0
0
0
0
0
0
0
0
0
0
0
0
0
0
0
0
0
0
0
0
0
0
0
0
0
0
0
0
0
0
0
0
0
0
0
0
0
0
0
0
0
0
0
0
0
0
0
0
0
0
0
0
0
0
0
0
0
0
0
0
0
0
0
0
0
0
0
0
0
0
0
0
0
0
0
0
0
0
0
0
0
0
0
0
0
0
0
0
0
0
0
0
0
0
0
0
0
0
0
0
0
0
0
0
0
0
0
0
0
0
0
0
0
0
0
0
0
0
0
0
0
0
0
0
0
0
0
0
0
0
0
0
0
0
0
0
0
0
0
0
0
0
0
0
0
0
0
0
0
0
0
0
0
0
0
0
0
0
0
0
0
0
0
0
0
0
0
0
0
0
0
0
0
0
0
0
0
0
0
0
0
0
0
0
0
0
0
0
0
0
0
0
0
0
0
0
0
0
0
0
0
0
0
0
0
0
0
0
0
0
0
0
0
0
0
0
0
0
0
0
0
0
0
0
0
0
0
0
0
0
0
0
0
0
0
0
0
0
0
0
0
0
0
0
0
0
0
0
0
0
0
0
0
0
0
0
0
0
0
0
0
0
0
0
0
0
0
0
0
0
0
0
0
0
0
0
0
0
0
0
0
0
0
0
0
0
0
0
0
0
0
0
0
0
0
0
0
0
0
0
0
0
0
0
0
0
0
0
0
0
0
0
0
0
0
0
0
0
0
0
0
0
0
0
0
0
0
0
0
0
0
0
0
0
0
0
0
0
0
0
0
0
0
0
0
0
0
0
0
0
0
0
0
0
0
0
0
0
0
0
0
0
0
0
0
0
0
0
0
0
0
0
0
0
0
0
0
0
0
0
0
0
0
0
0
0
0
0
0
0
0
0
0
0
0
0
0
0
0
0
0
0
0
0
0
0
0
0
0
0
0
0
0
0
0
0
0
0
0
0
0
0
0
0
0
0
0
0
0
0
0
0
0
0
0
0
0
0
0
0
0
0
0
0
0
0
0
0
0
0
0
0
0
0
0
0
0
0
0
0
0
0
0
0
0
0
0
0
0
0
0
0
0
0
0
0
0
0
0
0
0
0
0
0
0
0
0
0
0
0
0
0
0
0
0
0
0
0
0
0
0
0
0
0
0
0
0
0
0
0
0
0
0
0
0
0
0
0
0
0
0
0
0
0
0
0
0
0
0
0
0
0
0
0
0
0
0
0
0
0
0
0
0
0
0
0
0
0
0
0
0
0
0
0
0
0
0
0
0
0
0
0
0
0
0
0
0
0
0
0
0
0
0
0
0
0
0
0
0
0
0
0
0
0
0
0
0
0
0
0
0
0
0
0
0
0
0
0
0
0
0
0
0
0
0
0
0
0
0
0
0
0
0
0
0
0
0
0
0
0
0
0
0
0
0
0
0
0
0
0
0
0
0
0
0
0
0
0
0
0
0
0
0
0
0
0
0
0
0
0
0
0
0
0
0
0
0
0
0
0
0
0
0
0
0
0
0
0
0
0
0
0
0
0
0
0
0
0
0
0
0
0
0
0
0
0
0
0
0
0
0
0
0
0
0
0
0
0
0
0
0
0
0
0
0
0
0
0
0
0
0
0
0
0
0
0
0
0
0
0
0
0
0
0
0
0
0
0
0
0
0
0
0
0
0
0
0
0
0
0
0
0
0
0
0
0
0
0
0
0
0
0
0
0
0
0
0
0
0
0
0
0
0
0
0
0
0
0
0
0
0
0
0
0
0
0
0
0
0
0
0
0
0
0
0
0
0
0
0
0
0
0
0
0
0
0
0
0
0
0
0
0
0
0
0
0
0
0
0
0
0
0
0
0
0
0
0
0
0
0
0
0
0
0
0
0
0
0
0
0
0
0
0
0
0
0
0
0
0
0
0
0
0
0
0
0
0
0
0
0
0
0
0
0
0
0
0
0
0
0
0
0
0
0
0
0
0
0
0
0
0
0
0
0
0
0
0
0
0
0
0
0
0
0
0
0
0
0
0
0
0
0
0
0
0
0
0
0
0
0
0
0
0
0
0
0
0
0
0
0
0
0
0
0
0
0
0
0
0
0
0
0
0
0
0
0
0
0
0
0
0
0
0
0
0
0
0
0
0
0
0
0
0
0
0
0
0
0
0
0
0
0
0
0
0
0
0
0
0
0
0
0
0
0
0
0
0
0
0
0
0
0
0
0
0
0
0
0
0
0
0
0
0
0
0
0
0
0
0
0
0
0
0
0
0
0
0
0
0
0
0
0
0
0
0
0
0
0
0
0
0
0
0
0
0
0
0
0
0
0
0
0
0
0
0
0
0
0
0
0
0
0
0
0
0
0
0
0
0
0
0
0
0
0
0
0
0
0
0
0
0
0
0
0
0
0
0
0
0
0
0
0
0
0
0
0
0
0
0
0
0
0
0
0
0
0
0
0
0
0
0
0
0
0
0
0
0
0
0
0
0
0
0
0
0
0
0
0
0
0
0
0
0
0
0
0
0
0
0
0
0
0
0
0
0
0
0
0
0
0
0
0
0
0
0
0
0
0
0
0
0
0
0
0
0
0
0
0
0
0
0
0
0
0
0
0
0
0
0
0
0
0
0
0
0
0
0
0
0
0
0
0
0
0
0
0
0
0
0
0
0
0
0
0
0
0
0
0
0
0
0
0
0
0
0
0
0
0
0
0
0
0
0
0
0
0
0
0
0
0
0
0
0
0
0
0
0
0
0
0
0
0
0
0
0
0
0
0
0
0
0
0
0
0
0
0
0
0
0
0
0
0
0
0
0
0
0
0
0
0
0
0
0
0
0
0
0
0
0
0
0
0
0
0
0
0
0
0
0
0
0
0
0
0
0
0
0
0
0
0
0
0
0
0
0
0
0
0
0
0
0
0
0
0
0
0
0
0
0
0
0
0
0
0
0
0
0
0
0
0
0
0
0
0
0
0
0
0
0
0
0
0
0.157754
0.102213
0.180049
0.140635
0.0972732
0.27761
0.31197
0.289117
0.260957
0.185032
0.0828499
0.226968
0.160339
0.198802
0.258523
0.878909
0.322895
0.2809
0.273057
1
1
0.144851
0.0642682
1
1
1
1
0.209147
1
1
1
1
0.219609
0.99522
0.997707
1
1
1
0.945793
0.945793
0.986629
0.986629
0.99516
0.99516
1
1
1
1
0.427366
0.968328
0.508495
0.554379
0.999999
1
1
0.998167
0.999997
0.480776
1
0.0650735
0.0597485
1
0.308505
1
0.24931
1
0.999975
0.999982
0.999883
0.99999
0.993
0.999865
0.972056
0.999988
0.993848
0.144987
0.623176
0.635442
0.154188
0.14622
0.997064
0.999986
1
0.470774
1
0.442281
0.999887
0.99999
0.993479
0.999875
0.973178
0.999989
0.994102
0.990054
0.999968
1
0.99998
0.99998
0.610675
0.94577
0.945765
0.945793
0.945793
0.98662
0.986629
0.976383
0.97638
0.976423
0.976423
0.995156
0.995161
0.999942
0.185783
0.990536
0.991827
0.999911
0.161345
0.114998
0.999314
0.999883
0.99948
0.20363
0.582357
0.4958
0.589337
0.571713
0.477708
0.476144
0.477665
0.477533
0.405782
0.472739
1
0.952492
0.999976
0.938585
0.999091
0.938611
0.999091
0.952508
0.999976
1
0.433872
0.970322
0.589324
0.589293
0.999934
0.897062
0.992762
0.441344
0.697805
0.246526
0.999794
1
0.999488
1
1
1
1
1
1
1
1
0.589113
0.551346
1
1
0.589205
0.589426
1
1
0.318689
1
0.325598
0.478424
0.478108
0.478465
0.478916
0.478269
0.479547
0.478245
0.478251
0.202819
0.947712
1
1
1
1
1
1
1
0.589313
0.589306
1
1
1
1
0.589314
0.589333
1
1
1
0.999341
0.945789
0.938923
0.945793
0.945681
0.986622
0.981385
0.986629
0.986565
0.976406
0.963573
0.976421
0.976239
0.995157
0.988245
0.995161
0.995062
0.999999
1
1
0.999996
0.191942
0.999975
0.999999
0.889248
0.974507
0.987616
0.992772
0.909587
0.603232
0.331428
0.160776
0.748443
0.400799
0.0834764
0.933685
0.999993
1
1
1
1
1
1
1
1
1
1
1
1
0.0403022
0.999924
0.999992
0.999978
1
1
0.999949
0.169657
0.999819
0.999985
0.589386
0.560661
0.465952
0.545329
0.999999
0.999999
0.999987
0.999999
1
1
0.986301
0.999907
1
0.999985
0.986308
0.999907
1
0.999985
0.999999
1
0.999999
0.999999
0.999984
0.999997
0.310265
0.465506
0.778951
0.477571
0.477535
0.478758
0.476974
0.515822
0.478275
0.456413
0.602566
0.992918
0.998849
1
1
1
1
1
1
1
1
1
1
1
0.999712
1
1
1
1
0.998875
0.999849
0.5893
0.589294
0.589336
0.587929
0.999992
0.999999
0.80343
0.813953
1
1
1
1
1
0.156955
0.999953
0.999977
0.999997
1
0.916532
0.975727
0.999998
0.999969
0.954056
0.97099
0.999999
0.995199
0.998936
0.998056
0.997838
0.999003
0.998044
0.997819
0.999994
0.999974
1
1
1
1
0.970459
1
1
0.993509
0.989766
0.96205
0.955178
0.975684
1
1
0.99485
0.990088
0.968122
0.955416
1
1
1
1
1
1
1
1
1
1
0.999824
0.999965
0.999985
1
1
1
1
1
1
1
1
1
1
1
0.99974
0.81362
0.442124
0.999987
0.999891
0.374616
0.999086
0.999967
0.999863
0.998505
0.998851
0.990942
1
1
1
1
1
1
1
1
0.504271
0.957764
0.589386
0.589415
1
1
1
0.488628
0.369742
0.999994
0.999997
0.921695
1
1
0.997773
0.995797
1
0.999362
0.999393
0.162351
0.999946
0.999985
0.072163
0.999908
1
1
0.999403
0.124494
0.999919
0.999984
0.062346
0.999901
0.565807
0.499361
0.344408
0.39366
0.496544
0.477586
0.478037
0.478792
0.47894
0.470207
0.478283
0.478261
0.999978
0.999873
0.11192
0.993619
0.958467
0.998994
0.956718
0.3572
0.790301
1
1
1
0.0758086
1
1
1
1
1
1
1
1
1
1
1
1
1
1
1
1
1
1
1
1
1
0.0740742
1
1
1
1
1
1
0.999997
0.999999
0.933365
1
1
0.969599
0.998728
0.997645
1
0.999672
0.958084
1
1
1
1
1
1
0.5893
0.589305
1
1
1
1
0.589333
0.589333
1
1
0.542557
1
1
1
1
1
1
1
1
1
1
0.999721
0.80906
0.848757
0.457614
0.999986
0.999881
0.378675
0.998989
0.999966
0.999853
0.998698
0.87405
0.987709
0.998748
0.992515
0.610671
0.945787
0.945793
0.976407
0.914018
0.895556
1
1
0.0689262
0.714121
0.706823
0.580414
0.761479
0.692018
0.622418
0.263881
0.426237
1
1
1
0.999515
0.293762
1
1
0.722733
0.995066
1
1
1
1
1
1
0.177623
0.457527
0.155381
0.211365
0.1553
0.211552
0.177385
0.453946
1
1
0.672987
0.992034
1
0.934237
1
0.999515
0.987065
0.745037
0.997333
0.999997
1
0.205433
0.0632779
0.953774
0.896357
1
0.99546
0.650645
0.999116
0.97581
1
1
1
0.993591
1
0.994798
1
1
0.860664
0.826734
1
1
1
1
0.956052
0.967484
0.821534
0.973823
0.998113
0.201907
1
1
1
1
1
1
0.999999
1
0.447318
0.530396
0.848478
1
1
1
1
0.98249
1
1
1
0.999999
0.746699
0.823784
0.838495
0.995449
0.778365
0.998728
0.841098
1
1
1
1
1
1
1
1
1
1
1
0.22033
1
1
1
1
0.316566
1
1
1
1
1
0.863698
0.966107
0.972833
0.997589
0.819726
0.919078
0.960914
0.22879
0.345184
0.823815
0.247991
0.87482
1
1
1
0.806382
0.892186
0.255542
0.86363
0.941033
0.161675
0.984036
0.999325
0.919739
1
1
1
1
1
1
1
1
1
1
0.959788
0.999674
1
1
1
1
1
1
1
1
0.766329
1
1
0.998171
0.999998
1
0.153645
0.138582
1
1
1
0.999416
1
1
0.99997
0.98737
0.199088
0.999625
0.954479
1
1
1
1
0.99668
0.970669
0.888967
0.74869
0.995161
0.965461
0.889448
0.760127
1
1
1
1
0.194075
1
1
1
1
1
1
1
1
0.997775
0.999998
0.959658
0.999672
1
1
1
1
0.538725
0.56776
1
1
1
1
0.136875
0.999165
0.998663
0.998667
0.999165
0.999165
0.998667
0.998667
0.999165
0.352084
0.228694
0.999163
0.998654
0.998654
0.999163
0.999996
0.997143
0.999999
1
1
0.999977
1
0.999155
0.99865
0.998639
0.999165
0.901162
0.480159
0.321904
1
1
0.849528
0.908445
1
1
1
1
1
1
1
1
1
1
0.318251
0.582748
0.507824
0.324075
0.585658
0.910663
1
1
1
1
0.235111
1
1
1
0.31978
0.776057
0.777419
0.993803
0.811764
1
1
1
1
1
1
1
1
1
1
1
1
1
0.999816
1
1
1
1
1
1
1
1
1
0.999816
1
1
1
1
1
1
1
1
0.967665
0.999997
0.999997
1
0.999999
1
0.999163
0.998667
0.998643
0.999165
1
1
1
1
1
1
1
1
0.972921
0.425535
1
0.999993
0.999165
0.998667
0.998667
0.999165
0.613627
0.229092
0.999163
0.998655
0.998655
0.999163
1
1
1
1
0.999917
1
0.322263
0.620268
0.824404
0.822096
0.99959
0.953113
0.593731
0.980749
0.951378
0.982663
1
1
1
1
0.999924
1
1
1
1
1
1
1
1
1
1
1
1
1
1
1
1
1
1
1
1
1
1
1
0.176789
0.230838
1
0.999997
0.785825
0.625518
0.999632
0.922023
0.999281
0.956259
1
1
0.966603
0.914717
1
1
1
0.0835421
0.625633
0.786662
0.275653
0.828601
0.0848527
0.853023
1
1
1
1
1
0.225857
1
1
1
0.98465
1
0.999995
1
1
1
1
1
1
0.999997
1
0.999413
1
1
1
1
1
0.998302
0.998495
0.999936
0.979689
0.999999
1
1
1
1
1
1
0.999996
0.999936
0.998601
0.982653
1
1
1
1
1
1
1
1
1
0.999995
1
1
1
1
1
1
1
1
1
1
1
1
1
1
1
1
1
1
1
1
1
1
1
1
1
1
1
1
1
1
0.730907
0.671484
1
1
1
1
1
1
1
1
1
1
1
1
1
1
1
1
1
1
1
1
0.419492
0.567705
1
1
1
1
1
1
0.999977
1
1
1
1
1
0.989917
1
1
1
0.999999
1
1
1
1
1
1
1
1
1
1
1
1
1
1
1
1
1
1
1
1
1
1
1
1
1
1
1
1
1
1
1
1
1
1
1
1
0.634455
0.403795
1
1
1
1
1
1
1
1
0.999969
1
1
0.999999
0.441003
0.452359
1
1
1
1
1
1
1
1
1
1
1
1
1
1
1
1
1
1
1
1
1
1
1
1
1
1
1
1
1
1
1
1
1
1
1
1
1
1
1
1
1
1
1
1
1
1
1
1
1
1
1
1
1
1
1
1
1
1
1
1
1
1
1
1
1
1
1
1
1
1
1
1
1
1
1
1
1
1
1
1
1
1
1
1
0.966321
0.673311
0.970656
1
0.969637
0.959564
1
0.997109
0.975663
0.999104
0.911681
0.999908
1
1
1
0.99996
1
1
1
0.99989
1
1
1
0.998642
0.999951
1
1
0.125001
0.997731
0.999937
1
1
0.144623
1
0.985205
0.971233
0.91944
0.959543
1
1
0.999997
0.995423
0.999993
0.997522
0.155796
0.241149
0.862358
0.887606
0.999629
0.921666
0.999276
0.955999
0.989032
0.778099
0.984413
0.986505
0.769658
0.978311
0.987869
0.485698
0.0919594
0.809632
0.719098
0.0947049
0.811981
0.718532
0.945823
0.961947
1
1
1
1
1
1
1
1
1
1
1
1
1
1
0.513199
0.408597
1
1
1
1
1
0.999949
0.999895
0.986918
0.99995
0.983644
0.99816
0.999926
0.98981
0.998516
0.855779
0.879017
0.989832
0.367228
0.201995
0.999165
0.998668
0.999165
0.998668
0.999165
0.998667
0.999165
0.998667
0.999164
0.998668
0.999165
0.998668
0.999164
0.998654
0.999163
0.998659
1
1
1
1
1
1
1
1
1
1
1
1
0.999997
0.999956
0.969996
0.984559
0.617688
0.617489
0.0714379
0.228143
1
1
0.999165
0.998656
0.998667
0.999165
1
1
1
0.971678
0.999984
0.999811
0.991676
0.999875
0.999766
0.979682
0.999926
0.99996
0.968057
0.999344
0.999619
0.900356
0.998558
0.99969
0.998721
0.996502
1
1
0.841904
0.885502
1
1
0.727369
0.727376
0.995027
0.995026
0.229103
0.349277
0.215353
0.99492
0.994975
0.68425
0.34931
0.34931
0.727376
0.994984
0.995026
0.166361
0.212969
0.146803
0.205006
1
1
1
1
1
1
1
1
1
1
1
1
1
1
1
1
1
1
1
1
1
1
1
1
1
1
1
1
1
1
1
1
1
1
1
1
1
1
1
1
1
1
1
1
1
1
1
1
1
1
1
1
1
1
1
1
1
1
1
1
1
1
1
1
1
1
1
1
1
1
1
1
1
1
1
1
1
1
1
1
1
1
1
1
1
1
1
1
1
1
1
1
1
1
1
1
1
1
1
1
1
1
1
1
1
1
1
1
1
1
1
1
1
1
1
1
1
1
1
1
1
1
1
1
1
1
1
1
1
1
1
1
1
1
1
1
1
1
1
1
1
1
1
1
1
1
1
1
1
1
1
1
1
1
1
1
1
1
1
1
1
1
1
1
0.207952
0.0620399
0.202786
0.0621798
0.165681
0.678582
0.63804
0.498641
1
1
1
1
1
1
1
1
1
1
1
1
1
1
1
1
0.999309
0.995333
0.954721
1
1
1
1
0.998587
0.999914
0.999999
0.977389
0.999994
0.999461
0.998102
1
1
1
1
1
1
1
1
1
1
1
1
1
1
1
1
1
1
1
1
0.268695
0.856323
0.999998
0.999983
1
1
1
1
0.95593
0.909959
0.878146
1
0.999993
1
1
0.994215
0.999999
1
1
1
1
1
1
1
1
1
1
1
1
0.999917
0.99994
0.977637
1
1
1
1
0.999997
1
1
1
1
1
1
1
1
1
1
1
1
1
1
1
1
0.999497
1
1
1
1
1
0.265752
0.916667
1
1
1
0.403751
0.723592
0.511687
0.786797
0.503753
0.725823
0.667418
0.940327
0.589013
0.441817
0.982971
0.57333
0.262422
1
1
1
1
1
1
1
1
1
1
1
1
1
1
1
1
1
1
1
1
1
0.697873
0.781601
0.578864
0.272277
0.982774
0.568031
0.194463
0.502064
0.860902
1
1
0.972806
0.999985
0.99984
0.991986
0.999852
0.999781
0.984943
0.999959
0.999978
0.970051
0.999592
0.999762
0.921396
0.998702
0.999844
0.998772
0.996304
1
1
1
1
0.277637
0.228201
0.999993
0.999917
0.979951
0.990514
0.999962
0.999964
0.991769
0.999885
0.97206
0.999983
0.999913
0.999316
0.857137
0.801583
0.930389
0.961079
0.0695793
0.217918
0.999165
0.998667
0.999165
0.998667
1
1
1
1
0.944136
0.999323
0.99999
0.999999
0.999992
1
1
1
1
0.441469
0.436988
0.999165
0.998668
0.998668
0.999165
0.999165
0.998667
0.998667
0.999165
0.999164
0.998668
0.998664
0.999165
0.999164
0.998655
0.998654
0.999164
0.999984
1
1
0.999876
0.999869
0.98919
0.999895
0.969686
0.99745
0.999903
0.989427
0.998324
0.85098
0.998946
0.998945
0.224615
0.503241
0.222585
0.994133
0.625825
0.824818
1
1
0.503328
0.503328
0.998945
0.502503
0.824856
0.824856
0.999956
1
0.225138
1
0.858393
0.93815
0.988892
0.179901
0.880358
0.931645
0.961104
0.999955
0.983459
1
1
0.677829
0.803929
0.883284
0.999672
0.937107
0.924139
0.999915
0.98099
0.163472
0.0588725
0.472373
0.590613
0.836404
0.326283
0.999881
0.952311
0.176525
0.623408
0.628092
0.643004
0.804509
0.743792
0.806001
0.0689035
0.768197
0.945021
0.128967
0.655077
0.634048
0.589356
0.589174
1
1
0.869298
0.996957
1
0.477965
0.478123
0.477574
0.477552
0.293787
1
1
0.999999
0.999207
0.107567
1
1
0.99984
1
1
1
1
1
1
0.913807
0.243341
0.913775
0.243404
1
1
0.999999
0.998571
0.589299
0.589295
0.861313
0.354577
1
0.999879
0.972855
0.999177
1
0.999989
1
0.999869
0.956706
0.959811
0.895532
0.86909
0.996954
1
1
1
1
0.672422
0.986954
0.989921
0.999909
0.974873
1
1
1
1
1
1
1
1
1
1
1
1
1
1
1
1
1
1
1
1
0.999997
0.998829
0.999999
0.996699
0.983972
0.98388
0.979043
0.969356
1
1
1
1
1
1
1
1
0.0617727
0.570582
0.148597
0.0615549
0.570606
0.0341054
0.248361
0.929989
0.922872
0.136855
1
1
1
1
1
1
1
1
0.999998
0.998661
0.999999
0.996976
1
1
1
1
0.960376
0.999803
0.95307
0.989818
0.999777
0.90609
0.977057
0.296966
0.37295
0.671428
0.107668
0.497437
0.156852
0.716828
1
1
1
1
1
1
1
1
0.588717
0.588049
0.589398
0.589426
1
1
1
0.998041
0.999992
1
1
0.999981
0.992724
0.285605
0.943429
0.945877
0.259299
0.150241
0.944111
0.289053
0.690947
0.890159
0.861191
0.90653
0.881332
1
1
1
1
1
1
1
1
0.478305
0.478263
0.478627
0.478698
0.478369
0.478728
0.478219
0.478223
0.694692
0.0865679
0.329536
1
1
1
1
0.328949
0.701586
1
1
0.997915
0.999992
0.87804
0.746725
1
1
1
1
1
1
1
1
1
0.256776
0.186605
0.290849
0.618975
0.323626
0.617336
0.344098
0.617991
1
1
1
1
1
1
1
1
1
1
1
1
0.998411
0.394577
0.441054
0.47203
0.929016
0.48789
0.92848
1
1
1
1
1
1
1
1
0.58931
0.589309
0.589322
0.589326
0.999936
0.674598
0.96333
1
0.960579
0.999613
0.904304
0.957691
0.996021
0.965727
1
1
1
1
1
1
1
1
1
0.241062
1
1
0.897774
0.261369
0.258356
0.963532
0.990925
0.47183
0.976843
0.768097
0.998053
0.999992
0.995121
0.999997
1
1
1
1
1
1
1
1
0.981237
0.763076
0.987762
0.904695
0.21138
0.435814
1
1
1
1
1
0.999995
1
1
1
1
0.0682845
0.939026
0.9205
0.999992
1
1
1
1
1
0.986654
0.999934
0.977598
1
1
1
1
1
1
1
0.999966
1
1
1
1
1
1
1
1
1
1
1
1
1
1
1
1
1
1
1
1
1
1
1
1
0.819762
0.914283
0.978549
0.999862
0.983505
0.999974
0.992887
0.323697
0.99999
1
0.999382
0.991431
0.901609
0.999173
0.996584
0.922239
0.93073
0.999871
1
0.999997
1
0.999417
1
0.0696989
0.0748598
0.065692
0.129412
0.963999
1
1
0.999993
1
1
1
0.999998
0.894917
0.996637
0.999999
0.998382
0.791357
0.990485
1
1
1
0.978195
0.99991
0.978331
0.996085
0.992759
0.999975
0.9996
0.943577
1
1
1
1
1
1
1
1
1
1
1
0.999031
0.999998
0.986811
0.874747
0.996316
0.970297
0.999992
0.99995
0.981003
0.112626
0.92504
1
0.232038
1
1
1
0.999993
1
1
1
0.981076
0.961733
0.988646
0.9672
1
1
1
1
1
1
1
1
1
1
1
1
1
1
1
1
1
1
1
1
1
1
0.750419
0.994742
0.874394
0.999629
0.999999
1
0.999152
1
1
1
1
1
1
1
1
0.993416
0.885695
0.997437
0.447601
0.788229
0.998607
1
0.999613
0.999998
1
1
1
1
1
0.887727
0.948319
0.888002
0.848441
0.902618
0.942274
0.927307
0.877707
1
1
1
1
1
1
1
1
1
1
1
1
1
1
1
1
1
1
1
1
1
1
1
1
1
1
1
1
1
1
0.229031
1
1
0.99999
1
1
1
0.986125
0.965744
0.988825
0.956256
1
1
1
1
1
1
1
1
1
1
1
1
1
1
1
1
1
1
1
1
1
1
1
1
1
1
1
0.999966
1
1
1
1
1
1
1
1
1
1
1
1
1
0.999938
1
1
1
1
0.611331
0.574572
0.639265
0.844158
0.715212
0.734475
0.787184
0.722059
0.999958
1
1
1
1
1
1
1
1
1
1
1
0.991712
0.991718
0.999165
0.998667
0.999165
0.998667
0.999165
0.998667
0.999165
0.998667
0.221858
0.704469
0.989868
0.993135
0.617912
0.982539
0.605296
0.999162
0.997245
0.99821
0.998653
0.991709
0.99171
0.990215
0.991708
0.523308
0.67693
0.986078
1
1
1
1
1
0.999404
0.0889018
0.520521
0.0660379
0.855004
0.89434
0.845254
0.589325
0.589143
0.999052
0.957724
0.970385
0.998487
0.991699
0.991679
0.949619
0.99152
1
1
1
1
1
1
1
1
1
1
1
1
1
1
1
1
1
1
1
1
1
1
1
1
1
1
1
1
1
1
1
1
1
1
1
0.991692
0.991694
0.991591
0.991698
0.376687
0.37552
0.990773
0.983889
0.991095
0.984344
0.875588
1
1
0.742463
0.857098
1
1
0.860998
0.998595
0.999222
0.825795
0.974655
0.977072
1
1
0.997056
0.871527
0.998936
0.522008
0.951956
0.994619
0.623161
0.799803
0.947673
1
1
0.997414
1
0.999995
1
1
1
1
0.997415
1
0.999995
1
1
0.264766
0.218262
0.224601
0.623435
0.266393
0.477549
0.477544
0.478537
0.478384
0.478147
0.47795
0.466861
0.974211
1
1
1
1
0.135743
0.619449
0.639063
1
1
1
0.998863
0.915772
0.999999
0.998836
0.924421
1
1
1
1
0.861401
0.706691
1
1
0.999999
1
0.924813
0.982599
1
0.987957
0.993746
1
1
0.999997
1
1
0.999999
1
1
0.999994
1
1
1
1
1
1
1
1
1
1
1
1
1
1
1
0.99864
0.941748
0.828542
0.69911
0.989422
0.852914
0.999812
0.999569
1
1
0.999794
0.999999
1
0.999999
1
1
0.986935
0.999991
1
1
1
0.985355
0.972536
0.939081
0.999999
1
0.981489
0.966252
1
1
1
1
1
1
1
1
1
1
1
1
1
1
1
1
1
1
1
1
1
1
1
1
1
1
1
1
1
1
1
1
1
1
1
1
1
0.991701
0.991693
0.99159
0.991697
0.415371
0.434342
0.987745
0.983741
0.991111
0.984493
0.616856
0.227469
0.999999
0.999995
1
1
1
0.999973
0.2296
0.85676
0.951497
0.846701
0.999142
0.958555
0.998491
0.98794
0.991726
0.99169
0.950275
0.991521
1
1
1
1
0.999356
0.728341
0.878005
0.988119
1
1
1
0.999999
1
1
0.912664
0.992533
0.991541
0.999672
0.928618
0.996991
1
0.999995
0.999987
0.675497
0.807944
0.999922
1
1
1
1
1
0.929401
0.482677
0.97977
0.999918
0.991701
0.991719
0.999165
0.998667
0.998667
0.999165
0.991718
0.991718
0.589298
0.589297
0.999165
0.998667
0.998667
0.999165
0.192835
0.222455
0.845414
0.990171
0.62005
0.997196
0.982769
0.607288
0.589315
0.589286
0.999163
0.997295
0.998654
0.998911
0.991712
0.991713
0.990249
0.991711
0.999718
0.997634
0.999923
1
1
1
0.955237
0.999332
0.920265
0.994585
0.65957
0.870671
0.776466
0.250997
0.99934
0.993464
0.409313
0.234356
0.99997
1
1
1
1
1
1
1
1
0.999987
0.993871
0.995703
1
0.621904
0.226554
0.673713
0.962792
0.999866
0.877184
0.985789
0.706892
1
1
1
1
1
0.999981
0.996642
0.993917
0.989432
0.999991
1
1
1
1
1
1
1
0.996746
1
0.999881
0.704452
0.999993
0.955856
0.916551
0.664153
0.709523
0.382117
0.938388
0.999356
0.99795
0.871214
0.742255
0.872776
0.999979
0.995732
0.982309
0.996169
0.986667
0.955498
0.694105
0.966939
0.999984
0.997549
0.999998
0.999998
0.99924
1
0.999993
0.996558
0.255937
1
1
1
1
0.999999
1
1
1
1
1
1
1
1
1
1
1
1
1
1
1
1
1
1
1
1
1
1
1
1
1
1
1
1
1
1
1
1
1
1
1
1
0.92201
0.980778
1
1
1
0.999996
1
1
1
1
1
1
1
1
1
1
1
1
1
1
1
1
1
1
1
1
1
1
1
1
1
1
1
1
1
1
1
1
1
1
1
1
1
1
1
1
1
1
1
1
1
1
1
1
1
1
0.582396
0.248099
0.983605
0.999953
1
1
1
1
1
1
1
1
0.607807
0.618023
0.935075
0.183191
0.99996
1
0.999915
1
1
1
1
1
1
1
1
1
0.999495
1
0.997255
0.934954
0.999998
0.999983
1
0.998197
1
0.998167
0.999997
0.997003
0.205147
0.853666
0.283113
0.829431
0.557306
0.992712
0.982833
0.692012
0.281664
0.853811
0.284216
0.853388
1
0.999999
1
1
1
1
1
1
1
1
1
1
1
1
1
1
1
1
1
1
1
1
1
1
1
1
1
1
1
1
1
1
1
1
1
1
1
1
1
1
1
1
1
0.706504
0.107159
0.0544944
0.937723
0.982721
0.999772
0.989426
0.999927
0.925091
0.917876
0.999328
0.970985
0.999761
0.916022
0.999299
0.999958
0.991141
0.999864
0.761244
1
0.936872
0.0655675
0.544763
0.172418
0.891192
0.431995
0.773754
0.868201
0.998498
0.958017
0.999572
0.603337
0.997107
0.999596
0.999689
0.382953
0.8068
0.997857
0.99976
0.962025
0.991422
0.999714
0.189099
1
0.991184
0.993292
1
1
1
1
1
1
1
1
0.999976
0.999383
0.996495
0.999998
1
0.999923
1
1
1
1
1
1
1
1
1
0.99952
0.999558
0.999704
1
0.999933
1
0.999947
1
0.993065
0.0900319
0.903868
0.915951
0.999717
1
1
1
1
1
0.964277
0.874542
0.999993
1
1
1
1
1
1
1
1
1
1
1
1
1
1
1
1
1
1
1
1
1
1
1
1
1
1
1
1
1
1
1
1
1
1
1
1
1
1
1
1
1
1
1
1
0.821155
0.885752
0.0630859
0.964597
0.229943
1
1
1
1
1
1
1
1
1
1
1
1
1
1
1
1
1
1
1
1
0.407625
0.555175
0.669759
1
1
1
1
0.999994
0.99769
0.999801
0.999999
1
0.999535
1
1
1
1
1
1
1
1
1
0.984881
0.991785
0.997888
0.999998
1
1
1
1
1
1
1
1
1
1
1
1
1
1
1
1
1
1
1
1
1
1
1
1
1
1
1
1
1
1
1
1
1
1
1
1
1
1
1
1
1
0.950867
0.999174
1
1
1
1
0.756805
0.871913
0.0672541
0.879335
0.214452
0.252788
0.938876
0.330876
1
1
1
1
1
1
1
1
0.999969
1
1
0.999999
0.396774
0.543446
0.52791
1
1
1
1
0.990677
0.993163
1
1
1
1
1
1
1
1
1
1
1
1
1
1
1
1
1
1
1
1
1
1
1
1
1
1
1
1
1
1
1
1
1
1
1
1
1
1
1
1
1
1
1
1
1
1
1
1
1
1
1
1
1
1
1
1
1
1
1
1
1
1
1
1
1
1
1
1
1
1
1
1
1
1
1
1
1
1
1
1
0.39061
0.9843
0.648186
0.926898
0.713837
0.0866404
0.855241
0.938578
0.999651
0.290333
0.362521
0.980084
0.924323
0.998725
0.459367
0.978549
0.749906
0.996174
0.956214
0.277046
0.266019
0.706144
0.263808
0.933526
0.654392
0.206025
0.963744
0.287143
1
1
1
1
1
1
1
1
0.993564
0.996109
0.96386
0.971136
0.994925
0.999222
0.997364
0.997108
0.97646
0.980407
1
1
1
1
1
1
1
1
1
1
1
1
1
1
1
1
1
1
1
1
1
1
1
1
1
1
1
1
1
1
1
1
0.999266
1
1
1
1
1
1
1
0.999242
0.914504
0.754206
0.470662
0.352316
0.76142
0.999766
0.8834
0.997587
0.999298
0.999682
0.958321
0.999999
0.997748
0.761245
0.884971
0.995078
0.257451
0.768397
0.740845
0.662793
1
1
1
1
0.999914
1
1
1
1
1
1
1
1
1
1
1
1
1
1
0.999968
1
1
1
1
1
1
1
1
1
1
1
1
1
1
1
1
1
1
1
1
1
1
1
1
1
1
1
1
1
1
1
1
0.999999
0.999987
1
1
0.187845
0.999998
0.999977
1
0.999606
1
1
1
0.999803
1
1
0.222231
0.836679
0.997227
0.680997
0.642536
0.873219
0.998435
0.351535
0.816062
0.974314
0.891401
0.9995
1
0.999942
1
0.996864
0.967138
0.837717
0.99954
0.952701
0.993771
0.976741
0.0761561
0.589655
0.584618
0.608725
0.0512991
0.92396
0.731928
0.629594
0.162929
1
0.999989
0.98942
0.999895
0.999999
0.999985
1
1
0.0759292
0.0643926
1
0.999929
1
1
1
0.999896
1
1
0.999999
0.999983
0.943578
0.999382
0.757412
0.85609
0.914334
0.999154
0.221021
0.285166
0.805129
0.973412
0.886622
0.999504
1
0.999945
1
0.996887
0.967997
0.838574
0.999563
0.952704
0.933861
0.0717629
0.594583
0.586498
0.611924
0.833777
0.0519522
0.925447
0.737372
0.630615
1
0.99999
0.989155
0.999898
1
1
1
1
1
1
1
1
1
1
1
1
1
1
1
1
1
1
1
1
1
1
1
1
1
1
1
1
1
1
1
1
1
1
1
1
1
1
1
1
1
1
1
1
1
1
1
1
1
1
1
1
1
1
0.987462
0.999984
1
0.99984
1
0.999218
0.999912
0.999313
1
1
1
1
1
1
1
1
0.986565
0.997445
0.935084
0.979642
0.983039
0.997902
0.998155
0.971406
0.98597
1
1
1
1
1
1
1
1
1
1
1
1
1
1
1
1
1
1
1
1
1
1
1
1
1
1
1
1
1
1
1
1
1
1
1
1
1
1
1
1
0.631666
0.357619
1
1
1
1
1
1
1
1
0.71239
0.880229
0.99996
1
0.999914
1
1
1
1
1
1
1
1
1
0.925158
0.703451
0.9274
0.96597
0.895857
0.997728
0.998948
0.872233
0.834683
0.289229
0.71364
0.210109
0.846861
0.784661
0.265249
0.56706
0.991728
0.983762
0.664668
0.213387
0.846718
0.784058
0.264148
1
0.999662
0.999866
1
1
1
1
1
0.812274
0.908939
1
1
1
1
1
1
1
1
1
1
1
1
1
1
1
1
1
1
1
1
1
1
1
1
1
1
1
1
1
1
1
1
1
1
1
1
1
1
0.30957
0.567908
0.844508
0.387444
0.229866
0.955759
1
1
1
0.999996
1
1
1
1
1
1
1
1
1
1
1
1
1
1
1
1
1
1
1
1
1
1
1
1
1
1
1
1
1
1
1
1
1
1
1
1
1
1
1
1
1
1
1
1
1
1
1
1
1
1
1
1
1
1
1
1
1
1
1
1
1
1
1
1
1
1
1
0.999874
0.9999
0.931125
0.999906
0.968948
0.944043
0.13403
0.919598
0.86073
0.998329
0.999746
0.99905
0.99878
0.955733
0.991091
0.998123
0.995477
0.992446
0.99883
0.997595
0.998339
0.999924
0.992774
0.99549
1
0.878115
0.998274
0.999827
0.999336
0.96108
0.999781
0.988073
0.999853
0.999593
0.96558
0.997615
0.999306
0.99806
0.856627
0.998336
0.997601
0.995469
0.374983
0.376645
0.991729
0.991728
0.999165
0.998668
0.999165
0.998668
0.999165
0.998668
0.999165
0.998668
1
1
0.991729
0.991729
0.999164
0.998668
0.999164
0.998668
0.991733
0.991729
0.991708
0.991716
0.999164
0.998668
0.999164
0.998666
0.991733
0.991726
1
1
1
1
1
1
1
1
1
1
1
1
1
1
1
1
1
1
1
1
1
1
1
1
1
1
1
1
1
1
1
1
1
1
1
1
1
1
0.214498
0.488807
0.284399
0.49255
0.492716
0.158998
0.493682
0.99952
0.999994
0.996358
1
0.997077
0.629847
0.867572
0.983055
1
1
1
1
1
1
1
1
1
1
1
1
1
1
1
1
1
1
1
1
1
1
1
1
0.999148
0.999898
0.998483
0.991324
0.954127
0.984911
0.98319
0.984086
0.967853
0.537262
0.882603
0.99581
0.999677
0.980489
0.9593
0.621142
0.9982
0.10917
0.991699
0.991755
0.985223
0.991952
0.207083
0.853736
0.941086
0.0502719
0.355888
0.280467
0.942171
0.941162
0.471658
0.950538
0.221124
0.999381
1
0.988412
0.93017
0.787071
0.324975
0.692554
0.607862
0.618099
0.192991
0.799072
0.538097
0.58199
0.24746
0.0718096
0.368554
0.589385
0.589388
0.991699
0.991699
0.9917
0.991698
0.991709
0.991727
0.991709
0.991727
1
1
1
1
1
1
1
1
1
1
1
1
1
1
1
1
1
1
1
1
1
1
1
1
1
1
1
1
1
1
1
1
1
1
1
1
1
1
1
1
1
1
1
1
1
1
1
1
1
1
1
0.533339
0.526575
0.869562
0.457868
0.949383
0.999991
0.995574
0.994189
0.991381
0.99996
0.501536
0.979159
0.97466
0.991746
0.990769
0.998534
0.999999
0.997049
0.998404
0.99219
0.984945
0.990817
0.999998
1
0.999514
0.999023
0.999845
0.997969
0.997849
0.999596
0.998831
0.998788
0.99966
0.999959
0.999861
0.999781
1
1
0.999776
0.973151
0.999815
0.999887
0.999542
0.85051
0.999043
0.995662
0.873754
0.99806
0.460924
0.992521
1
1
1
1
1
0.998793
0.998553
0.997761
1
1
0.993669
0.934657
1
1
0.535336
0.363469
0.561368
0.536207
0.601673
0.507487
0.968839
0.591167
0.9992
0.999211
0.759106
0.995846
0.996383
0.999368
0.99956
0.559329
0.820301
0.997563
0.999373
0.999564
0.999851
0.761159
0.99647
0.34931
0.144969
0.34931
0.0971776
0.494162
0.623153
0.727376
0.727376
0.995026
0.995026
0.623154
0.727376
0.995026
0.995026
0.727376
0.0708839
0.05965
1
1
1
1
1
1
1
1
1
1
1
1
1
1
1
1
1
1
1
1
1
1
1
1
1
1
1
1
1
1
1
1
1
1
1
1
1
1
1
1
1
1
1
1
1
1
1
1
1
1
1
1
1
1
1
1
1
1
1
1
1
1
1
1
1
1
1
1
1
1
1
1
1
1
1
1
1
1
1
1
1
1
1
1
1
1
1
1
1
1
1
1
1
1
1
1
1
1
1
1
1
1
1
1
1
1
1
1
1
1
1
1
1
1
1
1
1
1
1
1
1
1
1
1
1
1
1
1
1
1
1
1
1
1
1
1
1
1
1
1
1
1
1
1
1
1
1
1
1
1
1
1
1
1
1
1
1
1
1
1
1
1
1
1
0.124478
0.0707017
0.719625
0.433931
0.495801
0.48912
0.435797
0.326581
0.422365
0.490014
0.435223
0.454268
0.430691
0.769307
0.572358
0.710239
0.428662
0.504605
0.489411
0.477704
0.477779
0.478906
0.478931
1
1
1
1
1
1
1
1
1
1
1
1
1
0.999997
1
1
0.999912
1
1
0.999269
0.999848
0.999958
1
0.987478
0.999984
1
1
1
1
1
1
1
0.999734
1
1
1
0.993453
0.126795
0.905559
0.915752
0.11391
1
1
1
0.999931
1
1
1
0.999674
1
0.999992
1
1
1
1
1
1
1
1
1
1
1
1
1
1
1
1
1
1
1
1
1
1
1
1
0.478283
0.478281
0.763125
0.994064
0.953244
0.95327
0.983075
0.999953
0.854723
0.894364
0.993222
0.271645
0.967553
0.653743
0.998532
0.999983
0.999987
0.994419
0.999819
0.355826
0.976422
1
0.999991
1
0.999997
1
1
1
1
0.987795
0.999898
0.975124
0.999963
0.999991
0.999719
0.959974
1
1
1
1
0.999999
0.998864
0.999998
1
1
1
1
1
1
1
1
1
0.999985
1
1
0.999993
1
1
0.999995
0.999966
0.999858
1
0.988814
0.999998
1
1
1
1
1
1
1
1
1
1
1
1
1
1
0.999987
1
1
1
1
1
1
1
1
1
1
1
1
1
1
1
1
1
1
0.384781
0.974982
0.911814
0.258874
0.887889
0.989573
0.362939
0.961193
0.665982
0.745424
0.99609
0.999
0.722368
0.992979
1
0.558324
0.981832
0.999999
0.99991
1
0.999087
1
0.999333
0.999728
0.678976
0.999303
0.958048
0.994314
0.995902
0.978744
1
1
1
0.999893
1
1
1
0.992564
0.861888
0.953842
0.923428
1
1
0.355704
0.999659
1
1
1
1
1
1
1
1
1
1
1
1
1
1
1
1
1
1
1
1
1
1
1
1
0.945136
0.973942
0.244925
0.264856
1
1
1
1
1
1
1
1
1
1
1
1
1
1
1
1
1
1
1
1
1
1
1
1
1
1
1
1
1
1
1
1
1
1
1
1
1
1
1
1
1
1
1
1
1
1
1
1
1
1
1
1
1
1
1
1
1
1
1
1
1
1
1
1
1
1
1
1
1
1
1
1
1
1
1
1
1
1
1
1
1
1
1
1
1
1
1
1
1
1
1
1
1
1
1
1
1
1
1
1
1
1
1
1
1
1
1
1
1
1
1
1
1
1
1
1
1
1
1
1
1
1
1
1
1
1
1
1
1
1
1
1
1
1
1
1
1
1
1
1
1
1
1
1
1
1
1
1
1
1
1
1
1
1
1
1
1
1
1
1
1
1
1
1
1
1
1
1
1
1
1
1
1
1
1
1
0.954473
0.952364
0.991166
0.990759
0.960309
0.995664
0.992377
0.999249
1
1
1
1
0.999999
0.998992
1
0.999843
1
1
1
1
1
1
1
1
1
1
1
1
1
1
1
1
1
1
1
1
1
1
1
1
1
1
1
1
1
1
1
1
1
1
1
1
1
1
1
1
1
1
1
1
1
1
1
1
1
1
1
1
1
1
1
1
1
1
1
1
1
1
1
1
1
1
1
1
1
1
1
1
1
1
1
1
1
1
1
1
1
1
1
1
1
1
0.954454
0.952359
0.991159
0.990756
0.960282
0.995663
0.992369
0.999249
1
1
1
1
0.999999
0.998992
1
0.999843
1
1
1
1
1
1
1
1
1
1
1
1
1
1
1
1
1
1
1
1
1
1
1
1
1
1
1
1
1
1
1
1
1
1
1
1
1
1
1
1
1
1
1
1
1
1
1
1
1
0.961253
0.897189
0.0675796
0.0777929
1
1
0.354529
0.99937
1
1
1
1
1
1
1
1
1
1
1
1
1
1
1
1
1
1
1
1
1
1
1
1
1
1
1
1
1
1
1
1
1
1
1
1
1
1
1
1
1
1
1
1
1
1
1
1
1
1
1
1
1
1
1
0.999992
0.996899
0.994586
0.991447
0.999919
0.447007
0.984199
0.976291
0.991265
0.990884
0.999
0.999999
0.99788
0.998486
0.995114
0.988331
0.991264
0.999999
1
0.999341
0.999028
0.999851
0.998282
0.997511
0.852368
0.999674
0.998876
0.99878
0.999595
0.999967
0.999867
0.999781
1
1
0.999651
0.97778
0.999845
0.999919
0.999514
0.999272
0.850027
0.995506
0.893347
0.997146
0.993008
0.995509
1
1
1
1
0.998872
0.999052
0.997523
1
1
1
1
1
1
1
1
1
1
1
1
1
1
1
1
1
1
1
1
1
1
1
1
1
1
1
1
1
1
1
1
0.279679
0.342291
0.617434
0.303719